/*--------------------------------*- C++ -*----------------------------------*\
| =========                 |                                                 |
| \\      /  F ield         | OpenFOAM: The Open Source CFD Toolbox           |
|  \\    /   O peration     | Version:  1.7.x                                 |
|   \\  /    A nd           | Web:      www.OpenFOAM.com                      |
|    \\/     M anipulation  |                                                 |
\*---------------------------------------------------------------------------*/
FoamFile
{
    version     2.0;
    format      ascii;
    class       volVectorField;
    location    "0";
    object      U;
}
// * * * * * * * * * * * * * * * * * * * * * * * * * * * * * * * * * * * * * //

dimensions      [0 1 -1 0 0 0 0];

internalField   uniform (0 0 0);

boundaryField
{
    outlet
    {
        type            zeroGradient;
    }
    inlet
    {
        type            fixedValue;
        value           nonuniform List<vector> 
528
(
(0 0 0.0274836)
(0 0 0.0274181)
(0 0 0.0272869)
(0 0 0.02709)
(0 0 0.0268273)
(0 0 0.026499)
(0 0 0.0261049)
(0 0 0.0256451)
(0 0 0.0251197)
(0 0 0.0245285)
(0 0 0.0238716)
(0 0 0.023149)
(0 0 0.0274181)
(0 0 0.027355)
(0 0 0.0272273)
(0 0 0.0270352)
(0 0 0.0267785)
(0 0 0.0264572)
(0 0 0.0260715)
(0 0 0.0256212)
(0 0 0.0251064)
(0 0 0.0245271)
(0 0 0.0238832)
(0 0 0.0231748)
(0 0 0.0272869)
(0 0 0.0272273)
(0 0 0.0271044)
(0 0 0.0269181)
(0 0 0.0266685)
(0 0 0.0263555)
(0 0 0.0259791)
(0 0 0.0255394)
(0 0 0.0250363)
(0 0 0.0244698)
(0 0 0.0238399)
(0 0 0.0231467)
(0 0 0.02709)
(0 0 0.0270352)
(0 0 0.0269181)
(0 0 0.0267389)
(0 0 0.0264974)
(0 0 0.0261937)
(0 0 0.0258278)
(0 0 0.0253996)
(0 0 0.0249093)
(0 0 0.0243567)
(0 0 0.0237418)
(0 0 0.0230648)
(0 0 0.0268273)
(0 0 0.0267785)
(0 0 0.0266685)
(0 0 0.0264974)
(0 0 0.0262652)
(0 0 0.0259719)
(0 0 0.0256175)
(0 0 0.025202)
(0 0 0.0247254)
(0 0 0.0241877)
(0 0 0.0235889)
(0 0 0.0229289)
(0 0 0.026499)
(0 0 0.0264572)
(0 0 0.0263555)
(0 0 0.0261937)
(0 0 0.0259719)
(0 0 0.0256902)
(0 0 0.0253484)
(0 0 0.0249465)
(0 0 0.0244847)
(0 0 0.0239629)
(0 0 0.023381)
(0 0 0.0227392)
(0 0 0.0261049)
(0 0 0.0260715)
(0 0 0.0259791)
(0 0 0.0258278)
(0 0 0.0256175)
(0 0 0.0253484)
(0 0 0.0250202)
(0 0 0.0246332)
(0 0 0.0241871)
(0 0 0.0236822)
(0 0 0.0231183)
(0 0 0.0224955)
(0 0 0.0256451)
(0 0 0.0256212)
(0 0 0.0255394)
(0 0 0.0253996)
(0 0 0.025202)
(0 0 0.0249465)
(0 0 0.0246332)
(0 0 0.0242619)
(0 0 0.0238327)
(0 0 0.0233457)
(0 0 0.0228008)
(0 0 0.0221979)
(0 0 0.0251197)
(0 0 0.0251064)
(0 0 0.0250363)
(0 0 0.0249093)
(0 0 0.0247254)
(0 0 0.0244847)
(0 0 0.0241871)
(0 0 0.0238327)
(0 0 0.0234214)
(0 0 0.0229533)
(0 0 0.0224283)
(0 0 0.0218465)
(0 0 0.0245285)
(0 0 0.0245271)
(0 0 0.0244698)
(0 0 0.0243567)
(0 0 0.0241877)
(0 0 0.0239629)
(0 0 0.0236822)
(0 0 0.0233457)
(0 0 0.0229533)
(0 0 0.0225051)
(0 0 0.022001)
(0 0 0.0214411)
(0 0 0.0238716)
(0 0 0.0238832)
(0 0 0.0238399)
(0 0 0.0237418)
(0 0 0.0235889)
(0 0 0.023381)
(0 0 0.0231183)
(0 0 0.0228008)
(0 0 0.0224283)
(0 0 0.022001)
(0 0 0.0215189)
(0 0 0.0209819)
(0 0 0.023149)
(0 0 0.0231748)
(0 0 0.0231467)
(0 0 0.0230648)
(0 0 0.0229289)
(0 0 0.0227392)
(0 0 0.0224955)
(0 0 0.0221979)
(0 0 0.0218465)
(0 0 0.0214411)
(0 0 0.0209819)
(0 0 0.0204687)
(0 0 0.019753)
(0 0 0.0202527)
(0 0 0.0207002)
(0 0 0.0210951)
(0 0 0.0214371)
(0 0 0.021726)
(0 0 0.0219613)
(0 0 0.0221431)
(0 0 0.0222711)
(0 0 0.0223451)
(0 0 0.0223653)
(0 0 0.0223315)
(0 0 0.018845)
(0 0 0.0193405)
(0 0 0.019786)
(0 0 0.0201807)
(0 0 0.0205236)
(0 0 0.0208139)
(0 0 0.021051)
(0 0 0.0212344)
(0 0 0.0213636)
(0 0 0.0214384)
(0 0 0.0214587)
(0 0 0.0214243)
(0 0 0.0178867)
(0 0 0.018374)
(0 0 0.018814)
(0 0 0.0192049)
(0 0 0.0195455)
(0 0 0.0198345)
(0 0 0.020071)
(0 0 0.0202542)
(0 0 0.0203834)
(0 0 0.0204582)
(0 0 0.0204783)
(0 0 0.0204436)
(0 0 0.016878)
(0 0 0.0173534)
(0 0 0.017784)
(0 0 0.0181677)
(0 0 0.0185028)
(0 0 0.0187878)
(0 0 0.0190214)
(0 0 0.0192025)
(0 0 0.0193304)
(0 0 0.0194043)
(0 0 0.0194241)
(0 0 0.0193897)
(0 0 0.015819)
(0 0 0.0162786)
(0 0 0.0166961)
(0 0 0.0170691)
(0 0 0.0173956)
(0 0 0.0176738)
(0 0 0.0179022)
(0 0 0.0180794)
(0 0 0.0182045)
(0 0 0.0182769)
(0 0 0.0182962)
(0 0 0.0182624)
(0 0 0.0147098)
(0 0 0.0151497)
(0 0 0.0155503)
(0 0 0.0159092)
(0 0 0.0162239)
(0 0 0.0164925)
(0 0 0.0167132)
(0 0 0.0168847)
(0 0 0.0170058)
(0 0 0.0170759)
(0 0 0.0170945)
(0 0 0.0170616)
(0 0 0.0135502)
(0 0 0.0139665)
(0 0 0.0143467)
(0 0 0.0146879)
(0 0 0.0149876)
(0 0 0.0152438)
(0 0 0.0154546)
(0 0 0.0156185)
(0 0 0.0157344)
(0 0 0.0158014)
(0 0 0.015819)
(0 0 0.0157874)
(0 0 0.0123402)
(0 0 0.0127292)
(0 0 0.0130851)
(0 0 0.0134052)
(0 0 0.0136868)
(0 0 0.0139279)
(0 0 0.0141264)
(0 0 0.0142809)
(0 0 0.0143901)
(0 0 0.0144533)
(0 0 0.0144699)
(0 0 0.01444)
(0 0 0.01108)
(0 0 0.0114376)
(0 0 0.0117656)
(0 0 0.0120611)
(0 0 0.0123214)
(0 0 0.0125446)
(0 0 0.0127285)
(0 0 0.0128717)
(0 0 0.0129731)
(0 0 0.0130317)
(0 0 0.013047)
(0 0 0.0130191)
(0 0 0.00976943)
(0 0 0.0100919)
(0 0 0.0103883)
(0 0 0.0106556)
(0 0 0.0108916)
(0 0 0.0110939)
(0 0 0.0112609)
(0 0 0.0113911)
(0 0 0.0114831)
(0 0 0.0115364)
(0 0 0.0115503)
(0 0 0.0115249)
(0 0 0.00840852)
(0 0 0.008692)
(0 0 0.00895301)
(0 0 0.0091888)
(0 0 0.00939713)
(0 0 0.00957598)
(0 0 0.00972371)
(0 0 0.0098389)
(0 0 0.00992038)
(0 0 0.0099675)
(0 0 0.00997981)
(0 0 0.00995728)
(0 0 0.00699725)
(0 0 0.00723793)
(0 0 0.00745981)
(0 0 0.00766059)
(0 0 0.00783816)
(0 0 0.00799075)
(0 0 0.00811687)
(0 0 0.00821525)
(0 0 0.00828487)
(0 0 0.00832512)
(0 0 0.0083356)
(0 0 0.00831631)
(0 0 0.00553581)
(0 0 0.00572975)
(0 0 0.00590875)
(0 0 0.006071)
(0 0 0.00621465)
(0 0 0.00633821)
(0 0 0.00644038)
(0 0 0.00652009)
(0 0 0.00657656)
(0 0 0.00660917)
(0 0 0.00661763)
(0 0 0.00660189)
(0 0 0.00402394)
(0 0 0.0041673)
(0 0 0.00429984)
(0 0 0.00442003)
(0 0 0.0045266)
(0 0 0.00461827)
(0 0 0.00469416)
(0 0 0.00475337)
(0 0 0.00479537)
(0 0 0.00481965)
(0 0 0.00482589)
(0 0 0.00481417)
(0 0 0.00246164)
(0 0 0.00255062)
(0 0 0.00263291)
(0 0 0.00270763)
(0 0 0.00277395)
(0 0 0.00283102)
(0 0 0.00287829)
(0 0 0.00291522)
(0 0 0.00294143)
(0 0 0.00295656)
(0 0 0.0029604)
(0 0 0.00295307)
(0 0 0.000849242)
(0 0 0.000879812)
(0 0 0.000908096)
(0 0 0.000933829)
(0 0 0.000956753)
(0 0 0.000976518)
(0 0 0.000992896)
(0 0 0.00100563)
(0 0 0.00101469)
(0 0 0.0010199)
(0 0 0.00102115)
(0 0 0.0010186)
(0 0 0.0223315)
(0 0 0.0223653)
(0 0 0.0223451)
(0 0 0.0222711)
(0 0 0.0221431)
(0 0 0.0219613)
(0 0 0.021726)
(0 0 0.0214371)
(0 0 0.0210951)
(0 0 0.0207002)
(0 0 0.0202527)
(0 0 0.019753)
(0 0 0.0214243)
(0 0 0.0214587)
(0 0 0.0214384)
(0 0 0.0213636)
(0 0 0.0212344)
(0 0 0.021051)
(0 0 0.0208139)
(0 0 0.0205236)
(0 0 0.0201807)
(0 0 0.019786)
(0 0 0.0193405)
(0 0 0.018845)
(0 0 0.0204436)
(0 0 0.0204783)
(0 0 0.0204582)
(0 0 0.0203834)
(0 0 0.0202542)
(0 0 0.020071)
(0 0 0.0198345)
(0 0 0.0195455)
(0 0 0.0192049)
(0 0 0.018814)
(0 0 0.018374)
(0 0 0.0178867)
(0 0 0.0193897)
(0 0 0.0194241)
(0 0 0.0194043)
(0 0 0.0193304)
(0 0 0.0192025)
(0 0 0.0190214)
(0 0 0.0187878)
(0 0 0.0185028)
(0 0 0.0181677)
(0 0 0.017784)
(0 0 0.0173534)
(0 0 0.016878)
(0 0 0.0182624)
(0 0 0.0182962)
(0 0 0.0182769)
(0 0 0.0182045)
(0 0 0.0180794)
(0 0 0.0179022)
(0 0 0.0176738)
(0 0 0.0173956)
(0 0 0.0170691)
(0 0 0.0166961)
(0 0 0.0162786)
(0 0 0.015819)
(0 0 0.0170616)
(0 0 0.0170945)
(0 0 0.0170759)
(0 0 0.0170058)
(0 0 0.0168847)
(0 0 0.0167132)
(0 0 0.0164925)
(0 0 0.0162239)
(0 0 0.0159092)
(0 0 0.0155503)
(0 0 0.0151497)
(0 0 0.0147098)
(0 0 0.0157874)
(0 0 0.015819)
(0 0 0.0158014)
(0 0 0.0157344)
(0 0 0.0156185)
(0 0 0.0154546)
(0 0 0.0152438)
(0 0 0.0149876)
(0 0 0.0146879)
(0 0 0.0143467)
(0 0 0.0139665)
(0 0 0.0135502)
(0 0 0.01444)
(0 0 0.0144699)
(0 0 0.0144533)
(0 0 0.0143901)
(0 0 0.0142809)
(0 0 0.0141264)
(0 0 0.0139279)
(0 0 0.0136868)
(0 0 0.0134052)
(0 0 0.0130851)
(0 0 0.0127292)
(0 0 0.0123402)
(0 0 0.0130191)
(0 0 0.013047)
(0 0 0.0130317)
(0 0 0.0129731)
(0 0 0.0128717)
(0 0 0.0127285)
(0 0 0.0125446)
(0 0 0.0123214)
(0 0 0.0120611)
(0 0 0.0117656)
(0 0 0.0114376)
(0 0 0.01108)
(0 0 0.0115249)
(0 0 0.0115503)
(0 0 0.0115364)
(0 0 0.0114831)
(0 0 0.0113911)
(0 0 0.0112609)
(0 0 0.0110939)
(0 0 0.0108916)
(0 0 0.0106556)
(0 0 0.0103883)
(0 0 0.0100919)
(0 0 0.00976943)
(0 0 0.00995728)
(0 0 0.00997981)
(0 0 0.0099675)
(0 0 0.00992038)
(0 0 0.0098389)
(0 0 0.00972371)
(0 0 0.00957598)
(0 0 0.00939713)
(0 0 0.0091888)
(0 0 0.00895301)
(0 0 0.008692)
(0 0 0.00840852)
(0 0 0.00831631)
(0 0 0.0083356)
(0 0 0.00832512)
(0 0 0.00828487)
(0 0 0.00821525)
(0 0 0.00811687)
(0 0 0.00799075)
(0 0 0.00783816)
(0 0 0.00766059)
(0 0 0.00745981)
(0 0 0.00723793)
(0 0 0.00699725)
(0 0 0.00660189)
(0 0 0.00661763)
(0 0 0.00660917)
(0 0 0.00657656)
(0 0 0.00652009)
(0 0 0.00644038)
(0 0 0.00633821)
(0 0 0.00621465)
(0 0 0.006071)
(0 0 0.00590875)
(0 0 0.00572975)
(0 0 0.00553581)
(0 0 0.00481417)
(0 0 0.00482589)
(0 0 0.00481965)
(0 0 0.00479537)
(0 0 0.00475337)
(0 0 0.00469416)
(0 0 0.00461827)
(0 0 0.0045266)
(0 0 0.00442003)
(0 0 0.00429984)
(0 0 0.0041673)
(0 0 0.00402394)
(0 0 0.00295307)
(0 0 0.0029604)
(0 0 0.00295656)
(0 0 0.00294143)
(0 0 0.00291522)
(0 0 0.00287829)
(0 0 0.00283102)
(0 0 0.00277395)
(0 0 0.00270763)
(0 0 0.00263291)
(0 0 0.00255062)
(0 0 0.00246164)
(0 0 0.0010186)
(0 0 0.00102115)
(0 0 0.0010199)
(0 0 0.00101469)
(0 0 0.00100563)
(0 0 0.000992896)
(0 0 0.000976518)
(0 0 0.000956753)
(0 0 0.000933829)
(0 0 0.000908096)
(0 0 0.000879812)
(0 0 0.000849242)
)
;
    }
    pipewall
    {
        type            fixedValue;
        value           uniform (0 0 0);
    }
    finwall
    {
        type            fixedValue;
        value           uniform (0 0 0);
    }
    centerpiece
    {
        type            fixedValue;
        value           uniform (0 0 0);
    }
    cyclic
    {
        type            cyclic;
        value           uniform (0 0 0);
    }
}


// ************************************************************************* //
