/*--------------------------------*- C++ -*----------------------------------*\
| =========                 |                                                 |
| \\      /  F ield         | OpenFOAM: The Open Source CFD Toolbox           |
|  \\    /   O peration     | Version:  1.7.x                                 |
|   \\  /    A nd           | Web:      www.OpenFOAM.com                      |
|    \\/     M anipulation  |                                                 |
\*---------------------------------------------------------------------------*/
FoamFile
{
    version     2.0;
    format      ascii;
    class       volScalarField;
    location    "0";
    object      k;
}
// * * * * * * * * * * * * * * * * * * * * * * * * * * * * * * * * * * * * * //

dimensions      [0 2 -2 0 0 0 0];

internalField   uniform 1e-05;

boundaryField
{
    inlet
    {
        type            fixedValue;
        value           uniform 1e-05;
    }
    outlet
    {
        type            zeroGradient;
    }
    pipewall
    {
        type            kqRWallFunction;
        value           uniform 1e-05;
    }
    cyclic
    {
        type            cyclic;
    }

}

// ************************************************************************* //
