/*--------------------------------*- C++ -*----------------------------------*\
| =========                 |                                                 |
| \\      /  F ield         | OpenFOAM: The Open Source CFD Toolbox           |
|  \\    /   O peration     | Version:  1.7.x                                 |
|   \\  /    A nd           | Web:      www.OpenFOAM.com                      |
|    \\/     M anipulation  |                                                 |
\*---------------------------------------------------------------------------*/
FoamFile
{
    version     2.0;
    format      ascii;
    class       volVectorField;
    location    "0";
    object      U;
}
// * * * * * * * * * * * * * * * * * * * * * * * * * * * * * * * * * * * * * //

dimensions      [0 1 -1 0 0 0 0];

internalField   uniform (0 0 0);

boundaryField
{
    outlet
    {
        type            zeroGradient;
    }
    inlet
    {
        type            fixedValue;
        value           nonuniform List<vector> 
429
(
(0 0 0.01599321)
(0 0 0.015965027)
(0 0 0.015904628)
(0 0 0.015807244)
(0 0 0.015667546)
(0 0 0.015479582)
(0 0 0.015236706)
(0 0 0.014931512)
(0 0 0.01455574)
(0 0 0.014100195)
(0 0 0.01355464)
(0 0 0.015965027)
(0 0 0.015938008)
(0 0 0.015879459)
(0 0 0.015784709)
(0 0 0.01564854)
(0 0 0.015465122)
(0 0 0.015227948)
(0 0 0.014929762)
(0 0 0.014562477)
(0 0 0.014117086)
(0 0 0.013583563)
(0 0 0.015904628)
(0 0 0.015879459)
(0 0 0.015823496)
(0 0 0.015732174)
(0 0 0.015600388)
(0 0 0.015422436)
(0 0 0.015191954)
(0 0 0.014901845)
(0 0 0.0145442)
(0 0 0.014110206)
(0 0 0.013590059)
(0 0 0.015807244)
(0 0 0.015784709)
(0 0 0.015732174)
(0 0 0.01564518)
(0 0 0.015518743)
(0 0 0.015347293)
(0 0 0.015124616)
(0 0 0.01484378)
(0 0 0.014497058)
(0 0 0.014075845)
(0 0 0.013570559)
(0 0 0.015667546)
(0 0 0.01564854)
(0 0 0.015600388)
(0 0 0.015518743)
(0 0 0.015398744)
(0 0 0.015234963)
(0 0 0.015021339)
(0 0 0.014751112)
(0 0 0.014416746)
(0 0 0.014009846)
(0 0 0.013521069)
(0 0 0.015479582)
(0 0 0.015465122)
(0 0 0.015422436)
(0 0 0.015347293)
(0 0 0.015234963)
(0 0 0.015080162)
(0 0 0.014876989)
(0 0 0.014618863)
(0 0 0.014298446)
(0 0 0.013907563)
(0 0 0.013437114)
(0 0 0.015236706)
(0 0 0.015227948)
(0 0 0.015191954)
(0 0 0.015124616)
(0 0 0.015021339)
(0 0 0.014876989)
(0 0 0.014685833)
(0 0 0.014441473)
(0 0 0.014136778)
(0 0 0.013763801)
(0 0 0.013313693)
(0 0 0.014931512)
(0 0 0.014929762)
(0 0 0.014901845)
(0 0 0.01484378)
(0 0 0.014751112)
(0 0 0.014618863)
(0 0 0.014441473)
(0 0 0.014212738)
(0 0 0.013925738)
(0 0 0.013572761)
(0 0 0.01314522)
(0 0 0.01455574)
(0 0 0.014562477)
(0 0 0.0145442)
(0 0 0.014497058)
(0 0 0.014416746)
(0 0 0.014298446)
(0 0 0.014136778)
(0 0 0.013925738)
(0 0 0.013658624)
(0 0 0.01332797)
(0 0 0.012925458)
(0 0 0.014100195)
(0 0 0.014117086)
(0 0 0.014110206)
(0 0 0.014075845)
(0 0 0.014009846)
(0 0 0.013907563)
(0 0 0.013763801)
(0 0 0.013572761)
(0 0 0.01332797)
(0 0 0.013022214)
(0 0 0.012647452)
(0 0 0.01355464)
(0 0 0.013583563)
(0 0 0.013590059)
(0 0 0.013570559)
(0 0 0.013521069)
(0 0 0.013437114)
(0 0 0.013313693)
(0 0 0.01314522)
(0 0 0.012925458)
(0 0 0.012647452)
(0 0 0.012303446)
(0 0 0.011699396)
(0 0 0.012027103)
(0 0 0.012291551)
(0 0 0.012499619)
(0 0 0.012657664)
(0 0 0.012771525)
(0 0 0.012846533)
(0 0 0.012887537)
(0 0 0.012898931)
(0 0 0.012884679)
(0 0 0.012848348)
(0 0 0.01086573)
(0 0 0.011189315)
(0 0 0.011452224)
(0 0 0.011660182)
(0 0 0.011818765)
(0 0 0.01193331)
(0 0 0.01200886)
(0 0 0.012050123)
(0 0 0.012061455)
(0 0 0.012046852)
(0 0 0.012009951)
(0 0 0.010004997)
(0 0 0.010318722)
(0 0 0.010574999)
(0 0 0.01077855)
(0 0 0.010934238)
(0 0 0.011046911)
(0 0 0.011121285)
(0 0 0.011161863)
(0 0 0.011172884)
(0 0 0.011158283)
(0 0 0.011121678)
(0 0 0.0091252791)
(0 0 0.0094242625)
(0 0 0.0096695624)
(0 0 0.0098650372)
(0 0 0.0100149)
(0 0 0.010123514)
(0 0 0.010195242)
(0 0 0.010234329)
(0 0 0.010244825)
(0 0 0.010230531)
(0 0 0.010194965)
(0 0 0.0082335874)
(0 0 0.0085137082)
(0 0 0.008744356)
(0 0 0.0089286447)
(0 0 0.0090701935)
(0 0 0.0091728933)
(0 0 0.0092407272)
(0 0 0.0092776378)
(0 0 0.009287429)
(0 0 0.0092737005)
(0 0 0.009239805)
(0 0 0.0073359854)
(0 0 0.0075937992)
(0 0 0.0078067116)
(0 0 0.0079772003)
(0 0 0.0081083411)
(0 0 0.0082035621)
(0 0 0.0082664505)
(0 0 0.0083006074)
(0 0 0.0083095426)
(0 0 0.0082966003)
(0 0 0.0082649099)
(0 0 0.0064376975)
(0 0 0.0066703576)
(0 0 0.0068629764)
(0 0 0.0070174889)
(0 0 0.0071364758)
(0 0 0.0072229131)
(0 0 0.0072799776)
(0 0 0.0073108992)
(0 0 0.0073188529)
(0 0 0.0073068817)
(0 0 0.007277844)
(0 0 0.0055432045)
(0 0 0.0057483916)
(0 0 0.0059186201)
(0 0 0.0060553677)
(0 0 0.0061607623)
(0 0 0.0062373393)
(0 0 0.0062878551)
(0 0 0.0063151444)
(0 0 0.0063220139)
(0 0 0.0063111669)
(0 0 0.0062851525)
(0 0 0.0046563277)
(0 0 0.0048321862)
(0 0 0.0049783357)
(0 0 0.0050958712)
(0 0 0.0051865056)
(0 0 0.0052523465)
(0 0 0.0052957239)
(0 0 0.0053190579)
(0 0 0.0053247605)
(0 0 0.0053151647)
(0 0 0.0052924773)
(0 0 0.003780306)
(0 0 0.0039253871)
(0 0 0.0040461267)
(0 0 0.0041433027)
(0 0 0.0042182476)
(0 0 0.0042726537)
(0 0 0.0043084212)
(0 0 0.0043275419)
(0 0 0.0043320123)
(0 0 0.0043237707)
(0 0 0.0043046546)
(0 0 0.0029178639)
(0 0 0.0030310753)
(0 0 0.0031253862)
(0 0 0.003201317)
(0 0 0.0032598519)
(0 0 0.0033022802)
(0 0 0.0033300713)
(0 0 0.0033447784)
(0 0 0.0033479663)
(0 0 0.0033411596)
(0 0 0.0033258064)
(0 0 0.0020712691)
(0 0 0.002151829)
(0 0 0.0022189674)
(0 0 0.0022729973)
(0 0 0.0023145842)
(0 0 0.0023446273)
(0 0 0.0023641663)
(0 0 0.0023743093)
(0 0 0.0023761782)
(0 0 0.0023708688)
(0 0 0.0023594247)
(0 0 0.0012423893)
(0 0 0.0012897861)
(0 0 0.0013292469)
(0 0 0.0013609205)
(0 0 0.0013851803)
(0 0 0.0014025488)
(0 0 0.0014136397)
(0 0 0.0014191119)
(0 0 0.0014196363)
(0 0 0.0014158706)
(0 0 0.0014084423)
(0 0 0.00043273963)
(0 0 0.00044669679)
(0 0 0.0004581803)
(0 0 0.00046721553)
(0 0 0.00047390772)
(0 0 0.00047841533)
(0 0 0.00048093089)
(0 0 0.00048166362)
(0 0 0.00048082882)
(0 0 0.00047863946)
(0 0 0.00047529865)
(0 0 0.012848348)
(0 0 0.012884679)
(0 0 0.012898931)
(0 0 0.012887537)
(0 0 0.012846533)
(0 0 0.012771525)
(0 0 0.012657664)
(0 0 0.012499619)
(0 0 0.012291551)
(0 0 0.012027103)
(0 0 0.011699396)
(0 0 0.012009951)
(0 0 0.012046852)
(0 0 0.012061455)
(0 0 0.012050123)
(0 0 0.01200886)
(0 0 0.01193331)
(0 0 0.011818765)
(0 0 0.011660182)
(0 0 0.011452224)
(0 0 0.011189315)
(0 0 0.01086573)
(0 0 0.011121678)
(0 0 0.011158283)
(0 0 0.011172884)
(0 0 0.011161863)
(0 0 0.011121285)
(0 0 0.011046911)
(0 0 0.010934238)
(0 0 0.01077855)
(0 0 0.010574999)
(0 0 0.010318722)
(0 0 0.010004997)
(0 0 0.010194965)
(0 0 0.010230531)
(0 0 0.010244825)
(0 0 0.010234329)
(0 0 0.010195242)
(0 0 0.010123514)
(0 0 0.0100149)
(0 0 0.0098650372)
(0 0 0.0096695624)
(0 0 0.0094242625)
(0 0 0.0091252791)
(0 0 0.009239805)
(0 0 0.0092737005)
(0 0 0.009287429)
(0 0 0.0092776378)
(0 0 0.0092407272)
(0 0 0.0091728933)
(0 0 0.0090701935)
(0 0 0.0089286447)
(0 0 0.008744356)
(0 0 0.0085137082)
(0 0 0.0082335874)
(0 0 0.0082649099)
(0 0 0.0082966003)
(0 0 0.0083095426)
(0 0 0.0083006074)
(0 0 0.0082664505)
(0 0 0.0082035621)
(0 0 0.0081083411)
(0 0 0.0079772003)
(0 0 0.0078067116)
(0 0 0.0075937992)
(0 0 0.0073359854)
(0 0 0.007277844)
(0 0 0.0073068817)
(0 0 0.0073188529)
(0 0 0.0073108992)
(0 0 0.0072799776)
(0 0 0.0072229131)
(0 0 0.0071364758)
(0 0 0.0070174889)
(0 0 0.0068629764)
(0 0 0.0066703576)
(0 0 0.0064376975)
(0 0 0.0062851525)
(0 0 0.0063111669)
(0 0 0.0063220139)
(0 0 0.0063151444)
(0 0 0.0062878551)
(0 0 0.0062373393)
(0 0 0.0061607623)
(0 0 0.0060553677)
(0 0 0.0059186201)
(0 0 0.0057483916)
(0 0 0.0055432045)
(0 0 0.0052924773)
(0 0 0.0053151647)
(0 0 0.0053247605)
(0 0 0.0053190579)
(0 0 0.0052957239)
(0 0 0.0052523465)
(0 0 0.0051865056)
(0 0 0.0050958712)
(0 0 0.0049783357)
(0 0 0.0048321862)
(0 0 0.0046563277)
(0 0 0.0043046546)
(0 0 0.0043237707)
(0 0 0.0043320123)
(0 0 0.0043275419)
(0 0 0.0043084212)
(0 0 0.0042726537)
(0 0 0.0042182476)
(0 0 0.0041433027)
(0 0 0.0040461267)
(0 0 0.0039253871)
(0 0 0.003780306)
(0 0 0.0033258064)
(0 0 0.0033411596)
(0 0 0.0033479663)
(0 0 0.0033447784)
(0 0 0.0033300713)
(0 0 0.0033022802)
(0 0 0.0032598519)
(0 0 0.003201317)
(0 0 0.0031253862)
(0 0 0.0030310753)
(0 0 0.0029178639)
(0 0 0.0023594247)
(0 0 0.0023708688)
(0 0 0.0023761782)
(0 0 0.0023743093)
(0 0 0.0023641663)
(0 0 0.0023446273)
(0 0 0.0023145842)
(0 0 0.0022729973)
(0 0 0.0022189674)
(0 0 0.002151829)
(0 0 0.0020712691)
(0 0 0.0014084423)
(0 0 0.0014158706)
(0 0 0.0014196363)
(0 0 0.0014191119)
(0 0 0.0014136397)
(0 0 0.0014025488)
(0 0 0.0013851803)
(0 0 0.0013609205)
(0 0 0.0013292469)
(0 0 0.0012897861)
(0 0 0.0012423893)
(0 0 0.00047529865)
(0 0 0.00047863946)
(0 0 0.00048082882)
(0 0 0.00048166362)
(0 0 0.00048093089)
(0 0 0.00047841533)
(0 0 0.00047390772)
(0 0 0.00046721553)
(0 0 0.0004581803)
(0 0 0.00044669679)
(0 0 0.00043273963)
)
;
    }
    pipewall
    {
        type            fixedValue;
        value           uniform (0 0 0);
    }
    finwall
    {
        type            fixedValue;
        value           uniform (0 0 0);
    }
    centerpiece
    {
        type            fixedValue;
        value           uniform (0 0 0);
    }
    cyclic
    {
        type            cyclic;
        value           uniform (0 0 0);
    }
}


// ************************************************************************* //
